2
Lattice="40.0 0.0 0.0 0.0 40.0 0.0 0.0 0.0 40.0" Properties=species:S:1:pos:R:3:forces:R:3 distance=3.55 energy=-411725.442644096 pbc="T T T"
Xe       0.00000000       0.00000000       0.00000000      -0.56047841      -0.00000001      -0.00000001
Xe       3.55000000       0.00000000       0.00000000       0.56047841       0.00000001       0.00000001
2
Lattice="40.0 0.0 0.0 0.0 40.0 0.0 0.0 0.0 40.0" Properties=species:S:1:pos:R:3:forces:R:3 distance=3.6508128549840153 energy=-411725.490327684 pbc="T T T"
Xe       0.00000000       0.00000000       0.00000000      -0.39343257      -0.00000002       0.00000001
Xe       3.65081285       0.00000000       0.00000000       0.39343257       0.00000002      -0.00000001
2
Lattice="40.0 0.0 0.0 0.0 40.0 0.0 0.0 0.0 40.0" Properties=species:S:1:pos:R:3:forces:R:3 distance=3.754488592145504 energy=-411725.524318351 pbc="T T T"
Xe       0.00000000       0.00000000       0.00000000      -0.26849225      -0.00000002      -0.00000002
Xe       3.75448859       0.00000000       0.00000000       0.26849225       0.00000002       0.00000002
2
Lattice="40.0 0.0 0.0 0.0 40.0 0.0 0.0 0.0 40.0" Properties=species:S:1:pos:R:3:forces:R:3 distance=3.8611085115762376 energy=-411725.547794974 pbc="T T T"
Xe       0.00000000       0.00000000       0.00000000      -0.17695331       0.00000002      -0.00000007
Xe       3.86110851       0.00000000       0.00000000       0.17695331      -0.00000002       0.00000007
2
Lattice="40.0 0.0 0.0 0.0 40.0 0.0 0.0 0.0 40.0" Properties=species:S:1:pos:R:3:forces:R:3 distance=3.9707562221269646 energy=-411725.56337987 pbc="T T T"
Xe       0.00000000       0.00000000       0.00000000      -0.11109850       0.00000000       0.00000001
Xe       3.97075622       0.00000000       0.00000000       0.11109850      -0.00000000      -0.00000001
2
Lattice="40.0 0.0 0.0 0.0 40.0 0.0 0.0 0.0 40.0" Properties=species:S:1:pos:R:3:forces:R:3 distance=4.083517706971517 energy=-411725.573171149 pbc="T T T"
Xe       0.00000000       0.00000000       0.00000000      -0.06499556       0.00000000      -0.00000001
Xe       4.08351771       0.00000000       0.00000000       0.06499556      -0.00000000       0.00000001
2
Lattice="40.0 0.0 0.0 0.0 40.0 0.0 0.0 0.0 40.0" Properties=species:S:1:pos:R:3:forces:R:3 distance=4.1994813910328075 energy=-411725.578754687 pbc="T T T"
Xe       0.00000000       0.00000000       0.00000000      -0.03373361       0.00000003       0.00000001
Xe       4.19948139       0.00000000       0.00000000       0.03373361      -0.00000003      -0.00000001
2
Lattice="40.0 0.0 0.0 0.0 40.0 0.0 0.0 0.0 40.0" Properties=species:S:1:pos:R:3:forces:R:3 distance=4.318738210323585 energy=-411725.581465152 pbc="T T T"
Xe       0.00000000       0.00000000       0.00000000      -0.01298354       0.00000000      -0.00000001
Xe       4.31873821       0.00000000       0.00000000       0.01298354      -0.00000000       0.00000001
2
Lattice="40.0 0.0 0.0 0.0 40.0 0.0 0.0 0.0 40.0" Properties=species:S:1:pos:R:3:forces:R:3 distance=4.441381683256339 energy=-411725.582172911 pbc="T T T"
Xe       0.00000000       0.00000000       0.00000000      -0.00007751      -0.00000001      -0.00000002
Xe       4.44138168       0.00000000       0.00000000       0.00007751       0.00000001       0.00000002
2
Lattice="40.0 0.0 0.0 0.0 40.0 0.0 0.0 0.0 40.0" Properties=species:S:1:pos:R:3:forces:R:3 distance=4.56750798397825 energy=-411725.581651479 pbc="T T T"
Xe       0.00000000       0.00000000       0.00000000       0.00767115       0.00000000       0.00000001
Xe       4.56750798       0.00000000       0.00000000      -0.00767115      -0.00000000      -0.00000001
2
Lattice="40.0 0.0 0.0 0.0 40.0 0.0 0.0 0.0 40.0" Properties=species:S:1:pos:R:3:forces:R:3 distance=4.69721601778871 energy=-411725.580347885 pbc="T T T"
Xe       0.00000000       0.00000000       0.00000000       0.01178193       0.00000002      -0.00000003
Xe       4.69721602       0.00000000       0.00000000      -0.01178193      -0.00000002       0.00000003
2
Lattice="40.0 0.0 0.0 0.0 40.0 0.0 0.0 0.0 40.0" Properties=species:S:1:pos:R:3:forces:R:3 distance=4.830607498698549 energy=-411725.578625806 pbc="T T T"
Xe       0.00000000       0.00000000       0.00000000       0.01345664       0.00000001       0.00000001
Xe       4.83060750       0.00000000       0.00000000      -0.01345664      -0.00000001      -0.00000001
2
Lattice="40.0 0.0 0.0 0.0 40.0 0.0 0.0 0.0 40.0" Properties=species:S:1:pos:R:3:forces:R:3 distance=4.967787029191786 energy=-411725.57675245 pbc="T T T"
Xe       0.00000000       0.00000000       0.00000000       0.01379497      -0.00000001       0.00000001
Xe       4.96778703       0.00000000       0.00000000      -0.01379497       0.00000001      -0.00000001
2
Lattice="40.0 0.0 0.0 0.0 40.0 0.0 0.0 0.0 40.0" Properties=species:S:1:pos:R:3:forces:R:3 distance=5.108862182252459 energy=-411725.5748161 pbc="T T T"
Xe       0.00000000       0.00000000       0.00000000       0.01299502       0.00000003      -0.00000001
Xe       5.10886218       0.00000000       0.00000000      -0.01299502      -0.00000003       0.00000001
2
Lattice="40.0 0.0 0.0 0.0 40.0 0.0 0.0 0.0 40.0" Properties=species:S:1:pos:R:3:forces:R:3 distance=5.253943585720835 energy=-411725.573016097 pbc="T T T"
Xe       0.00000000       0.00000000       0.00000000       0.01186014      -0.00000002       0.00000002
Xe       5.25394359       0.00000000       0.00000000      -0.01186014       0.00000002      -0.00000002
2
Lattice="40.0 0.0 0.0 0.0 40.0 0.0 0.0 0.0 40.0" Properties=species:S:1:pos:R:3:forces:R:3 distance=5.403145009045193 energy=-411725.571356506 pbc="T T T"
Xe       0.00000000       0.00000000       0.00000000       0.01029817       0.00000001      -0.00000002
Xe       5.40314501       0.00000000       0.00000000      -0.01029817      -0.00000001       0.00000002
2
Lattice="40.0 0.0 0.0 0.0 40.0 0.0 0.0 0.0 40.0" Properties=species:S:1:pos:R:3:forces:R:3 distance=5.5565834524971605 energy=-411725.569860737 pbc="T T T"
Xe       0.00000000       0.00000000       0.00000000       0.00899716      -0.00000001      -0.00000000
Xe       5.55658345       0.00000000       0.00000000      -0.00899716       0.00000001       0.00000000
2
Lattice="40.0 0.0 0.0 0.0 40.0 0.0 0.0 0.0 40.0" Properties=species:S:1:pos:R:3:forces:R:3 distance=5.714379238920589 energy=-411725.568538763 pbc="T T T"
Xe       0.00000000       0.00000000       0.00000000       0.00754819       0.00000000       0.00000000
Xe       5.71437924       0.00000000       0.00000000      -0.00754819      -0.00000000      -0.00000000
2
Lattice="40.0 0.0 0.0 0.0 40.0 0.0 0.0 0.0 40.0" Properties=species:S:1:pos:R:3:forces:R:3 distance=5.876656108085933 energy=-411725.567362928 pbc="T T T"
Xe       0.00000000       0.00000000       0.00000000       0.00599754       0.00000000      -0.00000000
Xe       5.87665611       0.00000000       0.00000000      -0.00599754      -0.00000000       0.00000000
2
Lattice="40.0 0.0 0.0 0.0 40.0 0.0 0.0 0.0 40.0" Properties=species:S:1:pos:R:3:forces:R:3 distance=6.043541313724072 energy=-411725.566523117 pbc="T T T"
Xe       0.00000000       0.00000000       0.00000000       0.00493351       0.00000000       0.00000002
Xe       6.04354131       0.00000000       0.00000000      -0.00493351      -0.00000000      -0.00000002
2
Lattice="40.0 0.0 0.0 0.0 40.0 0.0 0.0 0.0 40.0" Properties=species:S:1:pos:R:3:forces:R:3 distance=6.215165723315725 energy=-411725.565659518 pbc="T T T"
Xe       0.00000000       0.00000000       0.00000000       0.00378321      -0.00000001      -0.00000001
Xe       6.21516572       0.00000000       0.00000000      -0.00378321       0.00000001       0.00000001
2
Lattice="40.0 0.0 0.0 0.0 40.0 0.0 0.0 0.0 40.0" Properties=species:S:1:pos:R:3:forces:R:3 distance=6.39166392071467 energy=-411725.565019897 pbc="T T T"
Xe       0.00000000       0.00000000       0.00000000       0.00338066       0.00000000       0.00000003
Xe       6.39166392       0.00000000       0.00000000      -0.00338066      -0.00000000      -0.00000003
2
Lattice="40.0 0.0 0.0 0.0 40.0 0.0 0.0 0.0 40.0" Properties=species:S:1:pos:R:3:forces:R:3 distance=6.5731743116852535 energy=-411725.564391962 pbc="T T T"
Xe       0.00000000       0.00000000       0.00000000       0.00262220       0.00000000      -0.00000001
Xe       6.57317431       0.00000000       0.00000000      -0.00262220      -0.00000000       0.00000001
2
Lattice="40.0 0.0 0.0 0.0 40.0 0.0 0.0 0.0 40.0" Properties=species:S:1:pos:R:3:forces:R:3 distance=6.759839232436966 energy=-411725.563800929 pbc="T T T"
Xe       0.00000000       0.00000000       0.00000000       0.00168952       0.00000003      -0.00000001
Xe       6.75983923       0.00000000       0.00000000      -0.00168952      -0.00000003       0.00000001
2
Lattice="40.0 0.0 0.0 0.0 40.0 0.0 0.0 0.0 40.0" Properties=species:S:1:pos:R:3:forces:R:3 distance=6.9518050612411715 energy=-411725.563376852 pbc="T T T"
Xe       0.00000000       0.00000000       0.00000000       0.00133849       0.00000000       0.00000000
Xe       6.95180506       0.00000000       0.00000000      -0.00133849      -0.00000000      -0.00000000
2
Lattice="40.0 0.0 0.0 0.0 40.0 0.0 0.0 0.0 40.0" Properties=species:S:1:pos:R:3:forces:R:3 distance=7.149222333217523 energy=-411725.562980913 pbc="T T T"
Xe       0.00000000       0.00000000       0.00000000       0.00073473      -0.00000001      -0.00000001
Xe       7.14922233       0.00000000       0.00000000      -0.00073473       0.00000001       0.00000001
2
Lattice="40.0 0.0 0.0 0.0 40.0 0.0 0.0 0.0 40.0" Properties=species:S:1:pos:R:3:forces:R:3 distance=7.352245858380098 energy=-411725.562438637 pbc="T T T"
Xe       0.00000000       0.00000000       0.00000000       0.00006291      -0.00000001       0.00000000
Xe       7.35224586       0.00000000       0.00000000      -0.00006291       0.00000001      -0.00000000
2
Lattice="40.0 0.0 0.0 0.0 40.0 0.0 0.0 0.0 40.0" Properties=species:S:1:pos:R:3:forces:R:3 distance=7.56103484303579 energy=-411725.561959804 pbc="T T T"
Xe       0.00000000       0.00000000       0.00000000      -0.00035818       0.00000001      -0.00000000
Xe       7.56103484       0.00000000       0.00000000       0.00035818      -0.00000001       0.00000000
2
Lattice="40.0 0.0 0.0 0.0 40.0 0.0 0.0 0.0 40.0" Properties=species:S:1:pos:R:3:forces:R:3 distance=7.775753014630171 energy=-411725.561233232 pbc="T T T"
Xe       0.00000000       0.00000000       0.00000000      -0.00156689       0.00000001      -0.00000001
Xe       7.77575301       0.00000000       0.00000000       0.00156689      -0.00000001       0.00000001
2
Lattice="40.0 0.0 0.0 0.0 40.0 0.0 0.0 0.0 40.0" Properties=species:S:1:pos:R:3:forces:R:3 distance=7.996568750138742 energy=-411725.560386825 pbc="T T T"
Xe       0.00000000       0.00000000       0.00000000      -0.00320233      -0.00000003      -0.00000001
Xe       7.99656875       0.00000000       0.00000000       0.00320233       0.00000003       0.00000001
2
Lattice="40.0 0.0 0.0 0.0 40.0 0.0 0.0 0.0 40.0" Properties=species:S:1:pos:R:3:forces:R:3 distance=8.223655208104221 energy=-411725.56000259 pbc="T T T"
Xe       0.00000000       0.00000000       0.00000000      -0.00380005      -0.00000000      -0.00000003
Xe       8.22365521       0.00000000       0.00000000       0.00380005       0.00000000       0.00000003
2
Lattice="40.0 0.0 0.0 0.0 40.0 0.0 0.0 0.0 40.0" Properties=species:S:1:pos:R:3:forces:R:3 distance=8.457190464423418 energy=-411725.55997321 pbc="T T T"
Xe       0.00000000       0.00000000       0.00000000      -0.00369501      -0.00000002      -0.00000002
Xe       8.45719046       0.00000000       0.00000000       0.00369501       0.00000002       0.00000002
2
Lattice="40.0 0.0 0.0 0.0 40.0 0.0 0.0 0.0 40.0" Properties=species:S:1:pos:R:3:forces:R:3 distance=8.697357651990211 energy=-411725.56004031 pbc="T T T"
Xe       0.00000000       0.00000000       0.00000000      -0.00358462      -0.00000001       0.00000001
Xe       8.69735765       0.00000000       0.00000000       0.00358462       0.00000001      -0.00000001
2
Lattice="40.0 0.0 0.0 0.0 40.0 0.0 0.0 0.0 40.0" Properties=species:S:1:pos:R:3:forces:R:3 distance=8.944345104304075 energy=-411725.560075261 pbc="T T T"
Xe       0.00000000       0.00000000       0.00000000      -0.00363804      -0.00000001      -0.00000000
Xe       8.94434510       0.00000000       0.00000000       0.00363804       0.00000001       0.00000000
2
Lattice="40.0 0.0 0.0 0.0 40.0 0.0 0.0 0.0 40.0" Properties=species:S:1:pos:R:3:forces:R:3 distance=9.198346503156802 energy=-411725.560310355 pbc="T T T"
Xe       0.00000000       0.00000000       0.00000000      -0.00323202       0.00000000       0.00000001
Xe       9.19834650       0.00000000       0.00000000       0.00323202      -0.00000000      -0.00000001
2
Lattice="40.0 0.0 0.0 0.0 40.0 0.0 0.0 0.0 40.0" Properties=species:S:1:pos:R:3:forces:R:3 distance=9.459561030513274 energy=-411725.56075049 pbc="T T T"
Xe       0.00000000       0.00000000       0.00000000      -0.00238196      -0.00000001      -0.00000000
Xe       9.45956103       0.00000000       0.00000000       0.00238196       0.00000001       0.00000000
2
Lattice="40.0 0.0 0.0 0.0 40.0 0.0 0.0 0.0 40.0" Properties=species:S:1:pos:R:3:forces:R:3 distance=9.728193524705269 energy=-411725.561226137 pbc="T T T"
Xe       0.00000000       0.00000000       0.00000000      -0.00164584      -0.00000002      -0.00000002
Xe       9.72819352       0.00000000       0.00000000       0.00164584       0.00000002       0.00000002
2
Lattice="40.0 0.0 0.0 0.0 40.0 0.0 0.0 0.0 40.0" Properties=species:S:1:pos:R:3:forces:R:3 distance=10.004454641060915 energy=-411725.561551481 pbc="T T T"
Xe       0.00000000       0.00000000       0.00000000      -0.00099415      -0.00000002      -0.00000001
Xe      10.00445464       0.00000000       0.00000000       0.00099415       0.00000002       0.00000001
2
Lattice="40.0 0.0 0.0 0.0 40.0 0.0 0.0 0.0 40.0" Properties=species:S:1:pos:R:3:forces:R:3 distance=10.288561017095686 energy=-411725.561692137 pbc="T T T"
Xe       0.00000000       0.00000000       0.00000000      -0.00084393      -0.00000001      -0.00000000
Xe      10.28856102       0.00000000       0.00000000       0.00084393       0.00000001       0.00000000
2
Lattice="40.0 0.0 0.0 0.0 40.0 0.0 0.0 0.0 40.0" Properties=species:S:1:pos:R:3:forces:R:3 distance=10.580735442394461 energy=-411725.56165387 pbc="T T T"
Xe       0.00000000       0.00000000       0.00000000      -0.00084886      -0.00000001      -0.00000000
Xe      10.58073544       0.00000000       0.00000000       0.00084886       0.00000001       0.00000000
2
Lattice="40.0 0.0 0.0 0.0 40.0 0.0 0.0 0.0 40.0" Properties=species:S:1:pos:R:3:forces:R:3 distance=10.88120703331794 energy=-411725.561618021 pbc="T T T"
Xe       0.00000000       0.00000000       0.00000000      -0.00093287       0.00000001      -0.00000000
Xe      10.88120703       0.00000000       0.00000000       0.00093287      -0.00000001       0.00000000
2
Lattice="40.0 0.0 0.0 0.0 40.0 0.0 0.0 0.0 40.0" Properties=species:S:1:pos:R:3:forces:R:3 distance=11.190211412670317 energy=-411725.561770277 pbc="T T T"
Xe       0.00000000       0.00000000       0.00000000      -0.00075982       0.00000001      -0.00000000
Xe      11.19021141       0.00000000       0.00000000       0.00075982      -0.00000001       0.00000000
2
Lattice="40.0 0.0 0.0 0.0 40.0 0.0 0.0 0.0 40.0" Properties=species:S:1:pos:R:3:forces:R:3 distance=11.507990894469188 energy=-411725.561937038 pbc="T T T"
Xe       0.00000000       0.00000000       0.00000000      -0.00034646      -0.00000000       0.00000001
Xe      11.50799089       0.00000000       0.00000000       0.00034646       0.00000000      -0.00000001
2
Lattice="40.0 0.0 0.0 0.0 40.0 0.0 0.0 0.0 40.0" Properties=species:S:1:pos:R:3:forces:R:3 distance=11.834794673962568 energy=-411725.562036783 pbc="T T T"
Xe       0.00000000       0.00000000       0.00000000      -0.00020756      -0.00000000       0.00000001
Xe      11.83479467       0.00000000       0.00000000       0.00020756       0.00000000      -0.00000001
2
Lattice="40.0 0.0 0.0 0.0 40.0 0.0 0.0 0.0 40.0" Properties=species:S:1:pos:R:3:forces:R:3 distance=12.170879023041948 energy=-411725.562151101 pbc="T T T"
Xe       0.00000000       0.00000000       0.00000000      -0.00011457       0.00000000       0.00000002
Xe      12.17087902       0.00000000       0.00000000       0.00011457      -0.00000000      -0.00000002
2
Lattice="40.0 0.0 0.0 0.0 40.0 0.0 0.0 0.0 40.0" Properties=species:S:1:pos:R:3:forces:R:3 distance=12.516507491204738 energy=-411725.562182216 pbc="T T T"
Xe       0.00000000       0.00000000       0.00000000       0.00002656      -0.00000002      -0.00000000
Xe      12.51650749       0.00000000       0.00000000      -0.00002656       0.00000002       0.00000000
2
Lattice="40.0 0.0 0.0 0.0 40.0 0.0 0.0 0.0 40.0" Properties=species:S:1:pos:R:3:forces:R:3 distance=12.87195111222366 energy=-411725.56218563 pbc="T T T"
Xe       0.00000000       0.00000000       0.00000000       0.00004981      -0.00000001      -0.00000001
Xe      12.87195111       0.00000000       0.00000000      -0.00004981       0.00000001       0.00000001
2
Lattice="40.0 0.0 0.0 0.0 40.0 0.0 0.0 0.0 40.0" Properties=species:S:1:pos:R:3:forces:R:3 distance=13.237488616685054 energy=-411725.562161095 pbc="T T T"
Xe       0.00000000       0.00000000       0.00000000       0.00002057       0.00000001      -0.00000001
Xe      13.23748862       0.00000000       0.00000000      -0.00002057      -0.00000001       0.00000001
2
Lattice="40.0 0.0 0.0 0.0 40.0 0.0 0.0 0.0 40.0" Properties=species:S:1:pos:R:3:forces:R:3 distance=13.613406650562917 energy=-411725.562150686 pbc="T T T"
Xe       0.00000000       0.00000000       0.00000000       0.00000500      -0.00000002       0.00000000
Xe      13.61340665       0.00000000       0.00000000      -0.00000500       0.00000002      -0.00000000
2
Lattice="40.0 0.0 0.0 0.0 40.0 0.0 0.0 0.0 40.0" Properties=species:S:1:pos:R:3:forces:R:3 distance=14.0 energy=-411725.562149812 pbc="T T T"
Xe       0.00000000       0.00000000       0.00000000       0.00001480      -0.00000001       0.00000002
Xe      14.00000000       0.00000000       0.00000000      -0.00001480       0.00000001      -0.00000002